<?xml version="1.0"?>
<VTKFile type="UnstructuredGrid"  version="0.1"  >
<UnstructuredGrid>
<Piece  NumberOfPoints="4618" NumberOfCells="9011">
<Points>
<DataArray  type="Float64"  NumberOfComponents="3"  format="ascii">-0.7998268628850584 0.01664299875160921 0  -0.7998268628850584 -0.01664299875160901 0  -0.7984422155799961 -0.04990018416506264 0  -0.7956753180488498 -0.08307098318824511 0  -0.7915309602997923 -0.1160979710713703 0  -0.7860163169778057 -0.1489239720281652 0  -0.7791409349440528 -0.1814921582176691 0  -0.7709167167485053 -0.213746148123668 0  -0.7613579000244424 -0.245630104161463 0  -0.7504810328404914 -0.2770888293429912 0  -0.7383049450528778 -0.3080678628329595 0  -0.724850715707485 -0.338513574230557 0  -0.7101416365481503 -0.3683732564135387 0  -0.6942031716943768 -0.3975952167839392 0  -0.6770629135582603 -0.4261288667574632 0  -0.6587505350769556 -0.4539248093416187 0  -0.6392977383433647 -0.4809349246509957 0  -0.6187381997239907 -0.5071124532116276 0  -0.5971075115589553 -0.5324120769102371 0  -0.5744431205451176 -0.5567899974482188 0  -0.5507842629089599 -0.5802040121645436 0  -0.5261718964814665 -0.6026135870963225 0  -0.5006486297925905 -0.6239799271505468 0  -0.4742586483080586 -0.6442660432655234 0  -0.4470476379362072 -0.6634368164457395 0  -0.4190627059372807 -0.6814590585592977 0  -0.3903522993721029 -0.6983015697926737 0  -0.3609661212313102 -0.7139351926633279 0  -0.3309550443903427 -0.7283328624966653 0  -0.3003710235391435 -0.7414696542799627 0  -0.2692670052390451 -0.7533228258121455 0  -0.237696836262534 -0.7638718570747205 0  -0.2057151703745969 -0.7730984857556964 0  -0.1733773737170052 -0.780986738865004 0  -0.140739428959349 -0.7875229603866775 0  -0.1078578383827431 -0.7926958349199282 0  -0.07478952606399998 -0.7964964072681825 0  -0.04159173932958416 -0.7989180979421733 0  -0.008321949649971846 -0.7999567145502458 0  0.02496224685403082 -0.7996104590561572 0  0.05820322912075531 -0.7978799308918084 0  0.09134345090031906 -0.794768125919517 0  0.1243255403777636 -0.7902804312456289 0  0.1570923994942111 -0.7844246158944473 0  0.1895873027940949 -0.777210817358624 0  0.2217539956273523 -0.7686515240492953 0  0.2535367915365621 -0.7587615536763482 0  0.2848806686604375 -0.7475580275962409 0  0.3157313649867812 -0.7350603411717871 0  0.3460354722900009 -0.7212901301952191 0  0.3757405285905642 -0.7062712334326547 0  0.4047951089763302 -0.6900296513548103 0  0.4331489146285179 -0.6725935011254101 0  0.4607528598982129 -0.6539929679252048 0  0.4875591572826429 -0.6342602526958782 0  0.5135214001541322 -0.6134295163942959 0  0.5385946430984997 -0.5915368208536134 0  0.5627354797238319 -0.5686200663536144 0  0.5859021178049297 -0.5447189260083574 0  0.6080544516333265 -0.5198747770847271 0  0.6291541314476429 -0.494130629370779 0  0.6491646298240723 -0.4675310507178911 0  0.6680513049120647 -0.4401220898856221 0  0.6857814604057374 -0.4119511968228447 0  0.7023244021471895 -0.3830671405231633 0  0.7176514912637313 -0.353519924596822 0  0.7317361937470358 -0.323360700705266 0  0.7445541263883856 -0.2926416800082107 0  0.7560830989904862 -0.2614160427765341 0  0.7663031527827782 -0.2297378463274485 0  0.7751965949737367 -0.1976619314413486 0  0.7827480293803455 -0.165243827422345 0  0.7889443830817192 -0.1325396559668293 0  0.7937749290507321 -0.09960603400650653 0  0.7972313047244743 -0.06649997569407355 0  0.7993075264813849 -0.03327879370124884 0  0.8 0 0  0.7993075264813849 0.03327879370124859 0  0.7972313047244743 0.06649997569407327 0  0.7937749290507321 0.09960603400650618 0  0.7889443830817192 0.1325396559668297 0  0.7827480293803456 0.1652438274223446 0  0.7751965949737368 0.1976619314413481 0  0.7663031527827782 0.229737846327448 0  0.7560830989904862 0.2614160427765343 0  0.7445541263883856 0.2926416800082107 0  0.731736193747036 0.3233607007052654 0  0.7176514912637313 0.3535199245968219 0  0.7023244021471895 0.3830671405231632 0  0.6857814604057374 0.4119511968228447 0  0.6680513049120648 0.440122089885622 0  0.6491646298240724 0.4675310507178909 0  0.6291541314476431 0.4941306293707788 0  0.6080544516333267 0.5198747770847268 0  0.5859021178049301 0.544718926008357 0  0.5627354797238321 0.5686200663536142 0  0.5385946430984995 0.5915368208536135 0  0.5135214001541325 0.6134295163942957 0  0.4875591572826434 0.6342602526958777 0  0.4607528598982129 0.6539929679252048 0  0.4331489146285179 0.6725935011254101 0  0.40479510897633 0.6900296513548104 0  0.3757405285905647 0.7062712334326545 0  0.3460354722900009 0.7212901301952191 0  0.3157313649867812 0.7350603411717871 0  0.2848806686604375 0.7475580275962409 0  0.2535367915365622 0.7587615536763482 0  0.2217539956273525 0.7686515240492953 0  0.1895873027940951 0.7772108173586239 0  0.1570923994942115 0.7844246158944473 0  0.124325540377764 0.7902804312456289 0  0.09134345090031873 0.794768125919517 0  0.05820322912075515 0.7978799308918084 0  0.02496224685403137 0.7996104590561572 0  -0.008321949649971294 0.7999567145502458 0  -0.04159173932958415 0.7989180979421733 0  -0.07478952606399997 0.7964964072681825 0  -0.107857838382743 0.7926958349199282 0  -0.1407394289593483 0.7875229603866777 0  -0.173377373717005 0.780986738865004 0  -0.2057151703745965 0.7730984857556965 0  -0.2376968362625338 0.7638718570747205 0  -0.2692670052390448 0.7533228258121456 0  -0.300371023539144 0.7414696542799625 0  -0.3309550443903423 0.7283328624966655 0  -0.3609661212313097 0.7139351926633282 0  -0.3903522993721028 0.6983015697926738 0  -0.4190627059372809 0.6814590585592976 0  -0.4470476379362077 0.6634368164457393 0  -0.4742586483080582 0.6442660432655236 0  -0.5006486297925901 0.6239799271505472 0  -0.5261718964814662 0.6026135870963226 0  -0.55078426290896 0.5802040121645434 0  -0.5744431205451175 0.556789997448219 0  -0.597107511558955 0.5324120769102373 0  -0.6187381997239902 0.507112453211628 0  -0.6392977383433646 0.480934924650996 0  -0.6587505350769555 0.4539248093416188 0  -0.6770629135582604 0.426128866757463 0  -0.6942031716943766 0.3975952167839396 0  -0.7101416365481503 0.3683732564135389 0  -0.7248507157074848 0.3385135742305575 0  -0.7383049450528777 0.3080678628329597 0  -0.7504810328404914 0.2770888293429914 0  -0.7613579000244425 0.2456301041614629 0  -0.7709167167485051 0.2137461481236681 0  -0.7791409349440528 0.1814921582176693 0  -0.7860163169778057 0.1489239720281653 0  -0.7915309602997923 0.1160979710713705 0  -0.7956753180488498 0.08307098318824567 0  -0.7984422155799961 0.04990018416506284 0  1.110223024625157e-16 8.326672684688674e-17 0  -0.3723576493556126 -0.1463525138191145 0  -0.04568161192827726 -0.3974700839892805 0  -0.3129036606043079 0.2492436372843267 0  0.3213236355260073 -0.2382901861148431 0  0.0703849472880605 0.3938467170487376 0  0.378502707609808 0.1502840055072533 0  -0.3201112507114616 -0.416429144513729 0  -0.1856247849637049 0.4921538215455857 0  0.2206449357060424 -0.4855733742152433 0  -0.525982563587687 0.08836307034743417 0  0.3364748555652051 0.4137896393961948 0  0.5308101531600079 -0.07785669152173011 0  -0.1719919329400937 -0.5647906395288216 0  -0.5793444713010039 -0.1223038503329593 0  0.006159422111829849 0.5920813371088087 0  0.03860032099642918 -0.5892846415909383 0  -0.3990606721846117 0.438287094713306 0  -0.1936104554934062 -0.2518656753576756 0  -0.08215521500533249 0.2178947428788029 0  0.4173222665488634 -0.4215117207496621 0  0.2295238801521583 -0.02628768840527268 0  0.1566641583333668 0.1863210381381182 0  0.5819779667631357 0.1212139143858174 0  -0.2284137164693159 0.03427994331473463 0  0.09186242358474148 -0.2119179924360459 0  -0.4963105622877912 -0.3104230944447389 0  0.5105899037599276 0.3106013786566789 0  0.1929916592609046 0.5430911920798052 0  -0.5285154021238232 0.2872618668979796 0  0.5413104263815909 -0.2718907893992498 0  -0.1316581424484485 -0.09914122075408185 0  0.3737223582315546 -0.08972440350639121 0  -0.3861118161525951 0.01227788688230823 0  0.1111513422505861 -0.3699708910101482 0  -0.0842045181837251 0.3737690962766678 0  -0.3067514771416549 0.5765940260178936 0  -0.4595556125443164 -0.4643612359866968 0  -0.3213685328217361 -0.5658038897348523 0  0.2089797028283053 0.3297695448176575 0  -0.1550273013199843 0.6355325161340881 0  -0.05251381381130771 -0.2201735618695367 0  0.3435202855323954 0.5586157084805423 0  0.1808056661905916 -0.6272707062923314 0  0.3509665026680235 -0.5517340765379404 0  -0.6563106112944572 0.02732518425462023 0  0.4760864718229872 0.4508728277811411 0  0.6581066629501768 -0.01369404914758364 0  -0.630304895805185 0.186500122885971 0  -0.3296619015532358 -0.2781848650953193 0  -0.1815645685458799 -0.4262281338544875 0  0.4437502138471848 0.0289326325937394 0  -0.2714169107565991 0.382306185175379 0  0.6374999109723685 -0.1693842736618105 0  0.2461059391057702 -0.3518028280128004 0  -0.4346855043231924 0.1889912004679069 0  0.3343051142854481 0.2783391415906277 0  -0.19066052114441 0.2841289266335265 0  -0.2216308226671324 0.1610318427064877 0  -0.07644754977595868 -0.6608802769046662 0  0.440234569162095 -0.1967063987521483 0  -0.2585542534495344 -0.08937127150379125 0  -0.61674278067327 -0.2511958621935753 0  0.122753619816102 0.6559798052556564 0  0.1226675605443986 0.05588195437366737 0  0.0303128521050238 0.1496023880135861 0  0.06398435629286955 0.2694874430074703 0  -0.5290255216431327 0.4154907373193962 0  0.5423000686226391 -0.3988947265308263 0  -0.01868978266790269 0.4745090656388252 0  0.6344556945050573 0.2342505379449951 0  -0.4689365473508514 -0.07481497597508682 0  -0.4837391490367006 -0.1924894204370075 0  -0.103988407771482 0.08522743100413875 0  0.214214172817955 -0.1587934595755074 0  0.1071861155010649 -0.07929011864876033 0  0.3257171728000855 0.04368594575513576 0  0.04799192789777638 -0.4707343217926863 0  -0.06280497109276359 -0.5158797778450688 0  0.2594958751171936 0.6357929985045928 0  -0.01894614223147143 -0.1118304786415156 0  0.4346781159655563 -0.3097103607664848 0  0.270225643667
[...]
<PointData  Scalars="f_31"> 
<DataArray  type="Float64"  Name="f_31"  format="ascii">3.8848616546722641e-20  1.0821015921420210e-20  3.0174564519560860e-21  8.4421807046321949e-22  2.3750163409151665e-22  6.7333377663079334e-23  1.9279410585401408e-23  5.5872348519730531e-24  1.6423704476662800e-24  4.9072349630526342e-25  1.4934901347352987e-25  4.6394022314575445e-26  1.4739910659922667e-26  4.7991342998773537e-27  1.6043896252752308e-27  5.5177175432369079e-28  1.9557541203234251e-28  7.1573790151557777e-29  2.7091591353734297e-29  1.0623953851522182e-29  4.3232744246974215e-30  1.8284807054684142e-30  8.0494441660772066e-31  3.6936538912306893e-31  1.7690779743582373e-31  8.8550639069207025e-32  4.6377858130957558e-32  2.5444281738774502e-32  1.4637994479607500e-32  8.8389465904510518e-33  5.6069444999205606e-33  3.7393923249083245e-33  2.6237919403280765e-33  1.9381068720935841e-33  1.5079042171277759e-33  1.2362497095348973e-33  1.0683766969239420e-33  9.7350479266309807e-34  9.3544267849037759e-34  9.4796357749128018e-34  1.0130981223226718e-33  1.1416863167090617e-33  1.3563996457380663e-33  1.6984179151059367e-33  2.2405178974278413e-33  3.1123681717326570e-33  4.5501434901014396e-33  6.9962491534840099e-33  1.1305454732385470e-32  1.9183709022015626e-32  3.4150836005397315e-32  6.3717791047926084e-32  1.2446343608516641e-31  2.5423841324407341e-31  5.4240270646098009e-31  1.2070190457471402e-30  2.7977995414470415e-30  6.7452368433852709e-30  1.6888626246926748e-29  4.3844781812758728e-29  1.1782859493017790e-28  3.2722722372932336e-28  9.3744575921491776e-28  2.7653464180996872e-27  8.3839039894211970e-27  2.6073690195802285e-26  8.3016631303709553e-26  2.7006194527914665e-25  8.9579879565773839e-25  3.0234643025681036e-24  1.0361721859018765e-23  3.5980373885829781e-23  1.2631942321198829e-22  4.4740529638435973e-22  1.5951730846040933e-21  5.7126078509990827e-21  2.0503207021762092e-20  7.3588369645171339e-20  2.6353346996296138e-19  9.3959884153021814e-19  3.3279244591843909e-18  1.1683633402786678e-17  4.0570621745780064e-17  1.3903967638055463e-16  4.6928116025047023e-16  1.5566113831503269e-15  5.0638226530692880e-15  1.6122823237537597e-14  5.0141497172161607e-14  1.5201766238969744e-13  4.4843287629707139e-13  1.2846776419952076e-12  3.5677375124971603e-12  9.5879482300195371e-12  2.4891396850808066e-11  6.2322718673620519e-11  1.5025433093030269e-10  3.4828074971842456e-10  7.7503576801837585e-10  1.6534932420839866e-09  3.3775501576991695e-09  6.5975529167519000e-09  1.2309552191073706e-08  2.1913463016708537e-08  3.7183953067629518e-08  6.0086696307534260e-08  9.2388624466844452e-08  1.3506804946639775e-07  1.8762693154999525e-07  2.4751357980760381e-07  3.0992451192250683e-07  3.6821103312246627e-07  4.1494647844520171e-07  4.4345743671897691e-07  4.4939311391655899e-07  4.3182273096699204e-07  3.9347685080326909e-07  3.4004578115160373e-07  2.7878527919894951e-07  2.1690315649267179e-07  1.6021906757006971e-07  1.1241973605632113e-07  7.4975148796853487e-08  4.7560135574456928e-08  2.8718517332608830e-08  1.6521649244931016e-08  9.0642715105600506e-09  4.7473570218807899e-09  2.3762745581055283e-09  1.1381182713824071e-09  5.2224910130919804e-10  2.2990753849357513e-10  9.7236829514161384e-11  3.9569213501149885e-11  1.5517047067790631e-11  5.8733999874406037e-12  2.1494598621002213e-12  7.6187571198257139e-13  2.6201958149979561e-13  8.7595276962344033e-14  2.8519948856965449e-14  9.0611134194581484e-15  2.8147591229435699e-15  8.5665655168818623e-16  2.5596021821664767e-16  7.5239632718999012e-17  2.1804686212531263e-17  6.2432854665442779e-18  1.7700151823597623e-18  4.9795368387054481e-19  1.3931650874521330e-19  1.2604446393777799e-02  1.6244834981810913e-09  1.0540243954359127e-13  6.4431364815859034e-03  4.7702436262494999e-11  1.6579378090067387e+00  9.9319058773658861e-05  3.0733165803672347e-17  4.1502427385740857e-02  1.2473288484241270e-18  4.6501430280177608e-09  1.2455676509744954e-03  6.3412074726619998e-12  9.8428528551497206e-22  2.0703753582351423e-14  1.6974039661514787e-02  3.7994953669910251e-22  4.4077503058793676e-05  1.2447731976359412e-09  1.6868893215639251e+00  1.9586211650565397e-19  1.5088733319389564e-04  3.6364913502984575e-01  1.9931671889840892e-10  1.5467118318157488e-03  1.2122412486674102e-07  2.5043948285574486e-17  2.2530073253360346e-07  8.4009661290140626e-03  6.8179887575809338e-08  2.3288476365241807e-17  4.9222939364757038e-05  3.1504659241116522e-08  1.4367140355894787e-06  6.0623721428376971e-13  1.7936065271200015e+00  7.2483473620370005e-05  3.1113009809971171e-22  7.8704370410726802e-24  2.3097053598985592e-01  6.3804624986136453e-04  1.0108008779480517e-07  2.9048172118114422e-05  6.2309946739975881e-25  1.0341009683240297e-23  3.6560910228023089e-14  4.6713584960218327e-07  6.7432178274791906e-15  1.5905429279686597e-11  1.9482551811901238e-12  1.0631105361436149e-15  1.2205685008497935e-07  2.3238188840272109e-02  1.5214533655413228e-17  1.2883170296808503e-13  1.0178123677828820e-05  3.0385702665648140e-03  3.8430512036586301e-01  5.0117885533109120e-02  5.9826174726378911e-26  2.2791378613317975e-12  3.3883613262161405e-06  3.8471969694186600e-19  4.5816998049142554e-04  3.3684197182432304e-02  8.8678073709228300e-01  2.8999499148909664e+00  2.8342684905634375e-08  7.1021773222656233e-22  5.5706138162423147e-01  1.9657642496519239e-11  3.8471368066439009e-10  2.2721792264802159e-13  1.0456778674499720e-01  2.9925455730284879e-07  1.9236873818678494e-04  6.7177365724965609e-05  1.0642179108064903e-16  9.7838928367386913e-19  3.9477145441639040e-05  7.5501592949150020e-05  1.0416398918931892e-15  1.5924691775839977e-02  1.5077150603203668e-22  1.6965350928577380e-01  3.6965086246544089e-10  3.9027859546517839e-04  2.2265592207104844e-04  2.7637768654257097e-17  9.7170626914065504e-07  6.6113545823927921e-05  1.0854866866275281e-24  4.1151717601610197e-02  1.6682845986787983e-11  2.0470199519631405e-14  4.7681116086966289e-27  2.3301843229995815e-27  4.1265594181282936e-02  2.2315311671605620e-09  6.9223671125629173e-10  2.0360268452214883e-05  8.3858012262453042e-12  2.8626120190300934e-13  9.9607077538569152e-19  2.0060032426089160e-17  1.4925448417517520e-10  2.4403579033747289e-07  4.7734528944487470e-20  6.8133346133834516e-03  4.4678236262399394e-11  6.3085945104936095e-05  2.6745325783434749e-08  5.9634737471568858e-09  1.2576234892835500e-19  2.8748448171998955e-03  1.0271657977410560e-20  2.4033395346532376e-08  2.3937464356023632e-14  1.7298438610988308e-14  3.6155050559103707e-01  1.0066377081323721e-26  3.1151068116441350e-03  1.7631195838405501e-06  3.6957160090414596e+00  1.5569312048609828e-25  2.0579022423678312e-05  1.8353024588198597e-19  3.2630622759609259e-07  4.0933312968743120e-10  1.9838093725388035e-12  1.6594001889042858e-14  4.6222218169380722e-04  3.1406833318774352e-21  2.6441787345175956e-08  1.1691988730333033e-08  4.0095467330839100e-07  1.3105003150495977e-11  2.5776277817222949e-18  2.9610814195888174e-07  3.9457804293093846e-01  3.8325628717590105e-05  2.3224922120273729e-16  4.0309629667202439e-26  1.9703271626872586e-03  2.2232199381309722e-22  1.3987328087499311e-03  4.7511375565130276e-01  2.7565783372975544e-03  2.1404373764446265e-22  4.5905391877602612e-07  1.0831658587616878e-27  1.5373079714255137e-03  4.2696393300905014e-21  1.4158751742119145e-06  1.2494853522510374e-04  4.0349137473278576e-10  1.8355696550282053e-13  7.7241633915210339e-11  5.7137738700145026e-02  1.2702120877698413e-10  5.7467149708067017e-06  8.1083087386789243e-15  9.2117709008782134e-01  1.1790733154005464e-02  1.8607977075295619e+00  2.7449072001809376e+00  1.1400123868671570e-01  6.8533615746404484e-29  1.8855361844415056e-12  8.1670471158499885e-07  1.8739153227997608e-25  1.0046405619065257e-07  1.6471312193847717e-02  3.1325585222302865e-05  1.8571498886476240e-01  5.9511020405970487e-14  6.4901011755718979e-25  7.6022163366495473e-05  1.6595732098441201e-03  1.6322613341446771e-27  1.8381666238628447e-06  3.2342273186729414e-01  3.2887463640686475e-02  2.5268714407212876e-13  7.2301086901971096e-29  2.2551087015637669e-17  5.3661540670291010e-27  1.9432603874889759e-05  8.7850310965438683e-01  3.9153591380637155e-23  1.3224037699929645e-05  4.8048428664772822e-20  2.5327410338080876e-09  4.5578422878068750e-17  3.9299337057207539e-18  1.5884051506764358e-10  5.8879864790202862e-07  3.7143389208477151e-03  1.0788131308453636e-23  7.1278271172360466e-04  2.0227477170931329e-21  1.8516193256104730e-04  1.6050192296328019e+00  3.0012976573842859e-14  6.1669851767161122e-25  5.4881575851491735e-06  3.0448671269320598e-22  1.6615998656388164e-16  7.4045752099568304e-02  5.0803682654623024e-03  7.2910994776875817e-08  1.1213106913744062e-06  1.9748983947631040e-15  2.1549924243561091e-10  2.8817003583616222e-06  4.4174453861184672e-05  1.7203785564010247e-03  1.1368383766400749e-09  1.4003627185416602e-14  2.0352810031306585e-09  3.1674884232332496e-03  7.5075965170483573e-13  3.2282195192491239e-05  2.3148251368032729e-29  2.2360349328288734e-05  6.2135954565470721e-21  2.8489177386074536e-05  2.8040172226642306e-17  1.9449155786003289e+00  2.1992722048566953e-21  2.0522933546334547e-18  1.4552476494647051e-03  4.6763312652961950e-02  5.6646050760716660e-02  2.9089474661345916e-07  3.5952935766525636e-15  1.0321223745462065e-16  2.9891626192493222e-14  1.1332540189398078e-10  3.6426621418647267e-06  1.4447802769314438e-04  1.7993292155388364e-09  3.4063371122618446e-27  1.2283324353453213e-21  3.5850770602247188e-12  3.2205365669059339e-12  2.0243757875015403e-09  4.6747850470628941e-04  6.7325423372982043e-03  9.9119961256122836e-07  2.6930518595233907e-07  2.3878604173739524e-02  4.6187018728642982e-04  1.2051846113898322e-09  6.6791332641339929e-01  1.0272866005292602e-05  8.0706330300024498e-02  4.5122665362664216e-01  1.9256190397302019e-21  2.9757361842387382e-16  5.0132483112110614e-17  1.0899333115485387e-29  3.4943427781605764e-06  3.5284540482323678e-06  1.9318730608349256e-08  2.2049645428347498e-05  8.8578124182524232e-04  1.7484835851913669e-12  1.2368511997550687e-24  5.0545435570130180e-20  7.6146961829944149e-01  8.3221995364892565e-13  1.8075809760983222e-10  1.3496634997365642e+00  3.3544229674039880e+00  1.2679675064501255e-11  6.4624216247103542e-15  2.2036648923803962e-12  6.5274701062501681e-11  8.2052476096439887e-03  4.9719464280615798e-03  2.9851127005869486e-08  2.1179363990153712e-06  1.4340250827914332e-08  6.2865177083752164e-08  1.2031618731036458e-19  3.6885907134510475e-02  8.7036157801265997e-08  2.7575689211846054e-22  6.9283426493219956e-20  1.9104605632272778e-29  7.0363383014261066e-02  3.7689477487556556e-08  1.3098175703217111e-05  7.5965054982520160e-12  1.1390433662142889e-26  1.8107860959456008e-23  8.2157969764399224e-12  1.1135367655097305e-14  2.3405822471258511e-01  1.1407257403007548e-19  7.8133482257720142e-16  6.3323889614708367e-04  9.3766190702779954e-14  1.4079911003266779e-11  1.2385053972050369e-03  2.4830682252450125e-16  2.3448061602872654e-16  7.0254126308657701e-06  9.2022104518327093e-15  4.1211495844082247e-04  3.6046767834492953e-09  8.6445720738335458e-09  1.0564247512761212e-14  3.0486598903641641e-06  1.4328133041686342e-01  3.4750410487916896e-17  1.5354536852702282e-18  4.1069630072899551e-05  1.3146524845975378e-16  1.9205835582909569e-05  1.5289533584642208e-25  1.0011062856945343e-24  2.3595990887691418e-01  5.3818906229904484e-01  5.7572999229625373e-20  1.1490615817602270e-17  9.9175993892732127e-17  7.7078628145345240e-21  5.4413163013913216e-15  4.3202252953021737e-10  1.4738122283228954e-04  7.2705980135986698e-05  1.7916018009950972e-19  6.0184744318561835e-15  7.8249545900106798e-02  1.1945234387337671e+00  7.6507492811535717e-04  5.8621789263032817e-27  1.2391312592430811e-11  7.6138311891391201e-30  1.5047942454610324e-29  3.1059121280217705e+00  2.6576775781579417e-06  1.7024752949234514e-20  1.5942038128130589e-06  2.3782889167360184e-03  4.9331623683574171e-03  8.5111654354593119e-17  4.5169415936808565e-24  1.5119328090378249e-03  5.9378884094212873e-03  7.4051613930201857e-12  9.0263190302590525e-16  1.9101213982543543e-15  6.6483843835767278e-20  1.7252571451862740e-29  3.2003802023741700e-07  4.7468540233615044e-06  9.6174825212795587e-14  7.9630722190018904e-02  1.0915936345379646e-05  2.7491630070490478e-03  3.7180086413981386e-19  4.7691793416208081e-09  1.0358912064005849e-11  5.2997013293293064e-06  3.0677739783901773e-08  1.9284271522200441e-01  4.2644982422633560e-12  4.3597604834019230e-13  1.0426028169317727e-17  6.6034992112880178e-02  7.3539653638693093e-03  2.1624203717136480e-02  5.5570926999671608e-10  4.5239112656198267e-02  1.7875066083747470e-30  4.5977334833354994e-16  3.8482294124503049e+00  1.0997174495151029e-22  4.5505769286973979e-05  1.0199967747349559e-21  9.0286307504983076e-25  2.6930841229729495e-26  2.4246300452330378e-05  1.8065907318042531e-19  2.2144044729630723e-28  2.4334040508767331e-12  8.6051462384904142e-15  3.8006483019249068e-02  4.0758221550927895e-24  5.9971766703311520e-06  3.6021163001860744e-11  2.5124741188930963e-06  7.8861673443678167e-03  1.2362491727289530e-11  8.1507304978104984e-10  1.3820963467622230e-27  1.0364451843054856e-04  3.1431067158537727e+00  6.7811577224220764e-07  8.5485215308474390e-06  2.0305002061590634e-04  6.1692895182078551e-09  8.2040203900673481e-01  2.4137167413959516e-24  3.6060372870292835e-08  4.7091865532595500e-08  2.2632839603777447e-01  6.3001047648995731e-09  5.4641867122760226e-19  1.8130196746500256e-12  3.1344009055460893e-05  7.6972471177490365e-09  2.6744809562443818e-15  2.2834458599076403e-13  2.0531873120162465e-22  8.8178493862060356e-29  2.9112105946768139e-29  7.9427102865940727e-25  2.9082475123644552e-07  1.1342385479593117e-08  3.9858438626682723e-21  1.6508144851807685e-01  2.3227788169482506e-17  1.3383458041179502e-16  2.0003709914442785e-11  3.1612167119896946e-11  7.0993784504827816e-08  2.6345110905070807e-09  6.9701059353713732e-14  7.2337981478504710e-19  8.0587608951041294e-04  1.2019716642240678e-22  4.0895728660669495e-10  8.0126391571641222e-09  9.7571031405805924e-10  6.0407558641962391e-19  4.8954091888754427e-19  3.7110958326114667e-09  1.7797783526926044e-07  7.0852809423330308e-06  9.3092485149443301e-10  2.3839741328896099e-09  1.0507811629980412e-10  2.3065886772899641e-12  3.7472878044416450e-24  6.4681591582857131e-25  7.2393787011406751e-26  2.3835276234060604e-13  3.8844390435392508e-10  8.3658532383389131e-07  2.8771220437165013e-06  8.4019242698616602e-07  4.2889308400326940e-16  6.8961261484499660e-09  1.3580885527917167e-17  4.2071248890136487e-04  1.1702525259159038e-02  9.9579321206514032e-09  7.5778170858817606e-01  2.7368234962848291e-08  1.0336678774479774e-08  1.9208284398075970e-06  1.0058948555357338e-04  1.2939496985094978e-04  4.1932099507924309e-08  1.8508540019074815e+00  1.6230226024579363e-21  1.7361796952317760e-04  2.3675176586957178e-01  5.5602902459669709e-14  1.8855546672583454e-01  7.4969665929988238e-13  1.6848230893902590e-02  6.0681267859880650e-17  4.7607404173995986e-16  9.0386701404387847e-15  7.2745826293665051e-13  2.1479203503998175e-29  3.7544383400007797e-13  2.7591956734139313e-14  3.9646206778689615e-04  2.9424232875134693e-01  6.0209958545081211e-07  9.4315205758233720e-27  5.6110202883497950e-04  2.1170245425719658e-02  3.8649254939235626e-03  2.6998865233341731e+00  9.4052934339008563e-11  3.4790997027442516e-22  1.0167547734659847e-10  8.1752217847469675e-24  1.1173644934980252e-17  2.2652975785711126e-19  4.6924571468917408e-12  4.9035043905065726e-24  1.0619879099918815e-08  4.0694542893349889e-01  6.4388779809307106e-01  1.9952844384025789e-03  5.9065689442470107e-14  1.6554841887355121e-18  1.1463231735123300e-06  1.0865347086166656e-07  1.0152561907490520e-09  5.0782536269938760e-20  1.0460212830038391e-01  8.8532700358361781e-07  7.2782895075205875e-09  4.4887593164416002e-11  8.2664082712449111e-09  2.1212859260757463e-19  2.9126538002860381e-29  1.5033214954945555e-02  2.6641302170902361e-08  2.2617298878824229e-21  5.4589939541864322e-04  8.7729312966906869e-26  4.2863106319010433e-16  1.9071504440328124e-20  2.4440161198272429e-18  2.3753736236696035e-13  2.3477614838144344e-27  5.2885168772683518e-16  9.7480813485852167e-22  2.3477150147670487e-07  2.7526976456493841e+00  8.8715153975706832e-25  7.0989779076376187e-22  1.2521466886132629e-01  5.3782092431291028e-31  5.9328066157553517e-15  8.5221956950397822e-06  2.6094222651708382e-01  9.6033357102941315e-10  3.9721922700132063e-15  3.2160008801064304e-08  4.1038582707115720e-10  1.9744956888965936e-22  1.0285762074576485e-24  1.8589420079131645e-02  1.6427827214349635e-14  4.0661361311686068e-06  1.4959664775155706e-02  6.5037361206299741e-05  6.6692094790234504e-04  1.3524029031862361e-23  3.8171544136179829e-08  5.9137418393209951e-01  4.8112844390582469e-10  1.0920135549326555e-08  5.3196856375166567e-11  1.9508731189325743e-21  4.0503771541828216e-19  1.2668650738987029e-11  1.8202368181796588e-06  5.4963730228026479e-09  5.1493519748050127e-14  4.9268779588348473e-12  6.0522160364587566e-11  2.7026805679941873e-15  9.6490674735219897e-03  1.3127762683711869e-03  1.1757540281544827e-09  1.4974579964836332e-02  3.1311323746962676e-04  2.8681279642103888e-04  4.0355429393180208e-08  2.1887700515808224e-04  2.5337359060807497e-04  3.3716807569533634e-03  4.1080784825286865e-03  3.2723515858490143e-08  1.2367833620819468e-06  1.4707951633317390e-10  2.0553656557903511e-06  1.2579567071556053e-07  8.8948133638905815e-31  4.2362927334266538e-19  1.0867712494755678e-22  2.7104767336389877e-23  4.5597026572071184e-10  1.0029780594787916e-04  1.7866514855694030e-24  1.7206875512492536e-27  4.3375071944294525e-18  6.4985935006601091e-07  1.2070857755641949e-05  6.2875497208313770e-17  7.8727420318351841e-03  1.3657316038174713e-03  6.5461296672258709e-02  2.6562962102191766e-25  8.6578763127999632e-05  6.5189568020613121e-04  6.0954832796210234e-17  1.4362060088030773e-27  4.6233415349074769e-31  7.9547321086939141e-03  2.1686353556096801e-10  2.3750181204000179e-01  3.2328568636743222e-04  2.0019665664563925e-06  9.1506157368519496e-06  1.5284647435819291e-11  5.2902398705535393e-08  9.7572321399648367e-13  5.1754515431962408e-13  2.7548827177910211e-05  6.6296310858518365e-02  3.7427236537708105e-06  3.9848168262273451e-07  3.7717520093350891e-06  3.3217700549799388e-10  3.7295693691593064e-09  3.4814716825856297e-06  3.7487528224283994e-03  8.4228053763196840e-03  5.7786464252436628e-06  1.2972813874169158e+00  1.0285027471757964e-27  2.5289848701311141e-13  1.3797099822814920e-07  4.1814780685430537e-16  1.4113377555190709e-13  1.5197836224282882e-01  1.1686016274937541e+00  1.1604436136967901e-16  2.2047391954803459e-24  3.6898197878603573e-06  5.7603584156576038e-01  5.9422141354309821e-01  1.6966808727746721e+00  9.6289396788492348e-05  1.1086687195060718e-04  4.4119577896612985e-07  8.3197875240172115e-04  2.2063497596298823e-18  1.0520145745852215e-24  3.1424143409412908e-27  4.3780942879096378e-30  2.6853409037830354e-04  4.3284441530996004e-06  9.6925777545320519e-11  2.6374397589423689e-11  1.8275979501702494e-12  4.7045355926903572e-02  1.4616677179730658e-14  2.3974207802036051e-18  4.6241034598498400e-21  3.8924118860611849e-06  1.2736579301990652e-03  1.0470774526656862e-13  3.8048398373269116e-20  2.9226791090238923e-19  1.1393594577852357e-03  4.4922173601031372e-22  1.7536666270267201e-06  2.5234571392296159e-27  7.8817182921437527e-27  2.3333087776821951e-10  2.1685613966936512e-23  2.5449843025489023e-04  2.2725652125277269e-22  1.9859523804603647e-06  9.5043495312289780e-03  1.6419903676173267e-24  3.8867342103504616e-03  1.1995019213396003e-17  1.8292528240825235e-20  1.7704443876774951e-22  7.1439719871923104e-03  9.8827010128982762e-01  1.8604302434264346e+00  1.3968832463848475e+00  1.4525497635555751e