<?xml version="1.0"?>
<VTKFile type="UnstructuredGrid"  version="0.1"  >
<UnstructuredGrid>
<Piece  NumberOfPoints="4618" NumberOfCells="9011">
<Points>
<DataArray  type="Float64"  NumberOfComponents="3"  format="ascii">-0.7998268628850584 0.01664299875160921 0  -0.7998268628850584 -0.01664299875160901 0  -0.7984422155799961 -0.04990018416506264 0  -0.7956753180488498 -0.08307098318824511 0  -0.7915309602997923 -0.1160979710713703 0  -0.7860163169778057 -0.1489239720281652 0  -0.7791409349440528 -0.1814921582176691 0  -0.7709167167485053 -0.213746148123668 0  -0.7613579000244424 -0.245630104161463 0  -0.7504810328404914 -0.2770888293429912 0  -0.7383049450528778 -0.3080678628329595 0  -0.724850715707485 -0.338513574230557 0  -0.7101416365481503 -0.3683732564135387 0  -0.6942031716943768 -0.3975952167839392 0  -0.6770629135582603 -0.4261288667574632 0  -0.6587505350769556 -0.4539248093416187 0  -0.6392977383433647 -0.4809349246509957 0  -0.6187381997239907 -0.5071124532116276 0  -0.5971075115589553 -0.5324120769102371 0  -0.5744431205451176 -0.5567899974482188 0  -0.5507842629089599 -0.5802040121645436 0  -0.5261718964814665 -0.6026135870963225 0  -0.5006486297925905 -0.6239799271505468 0  -0.4742586483080586 -0.6442660432655234 0  -0.4470476379362072 -0.6634368164457395 0  -0.4190627059372807 -0.6814590585592977 0  -0.3903522993721029 -0.6983015697926737 0  -0.3609661212313102 -0.7139351926633279 0  -0.3309550443903427 -0.7283328624966653 0  -0.3003710235391435 -0.7414696542799627 0  -0.2692670052390451 -0.7533228258121455 0  -0.237696836262534 -0.7638718570747205 0  -0.2057151703745969 -0.7730984857556964 0  -0.1733773737170052 -0.780986738865004 0  -0.140739428959349 -0.7875229603866775 0  -0.1078578383827431 -0.7926958349199282 0  -0.07478952606399998 -0.7964964072681825 0  -0.04159173932958416 -0.7989180979421733 0  -0.008321949649971846 -0.7999567145502458 0  0.02496224685403082 -0.7996104590561572 0  0.05820322912075531 -0.7978799308918084 0  0.09134345090031906 -0.794768125919517 0  0.1243255403777636 -0.7902804312456289 0  0.1570923994942111 -0.7844246158944473 0  0.1895873027940949 -0.777210817358624 0  0.2217539956273523 -0.7686515240492953 0  0.2535367915365621 -0.7587615536763482 0  0.2848806686604375 -0.7475580275962409 0  0.3157313649867812 -0.7350603411717871 0  0.3460354722900009 -0.7212901301952191 0  0.3757405285905642 -0.7062712334326547 0  0.4047951089763302 -0.6900296513548103 0  0.4331489146285179 -0.6725935011254101 0  0.4607528598982129 -0.6539929679252048 0  0.4875591572826429 -0.6342602526958782 0  0.5135214001541322 -0.6134295163942959 0  0.5385946430984997 -0.5915368208536134 0  0.5627354797238319 -0.5686200663536144 0  0.5859021178049297 -0.5447189260083574 0  0.6080544516333265 -0.5198747770847271 0  0.6291541314476429 -0.494130629370779 0  0.6491646298240723 -0.4675310507178911 0  0.6680513049120647 -0.4401220898856221 0  0.6857814604057374 -0.4119511968228447 0  0.7023244021471895 -0.3830671405231633 0  0.7176514912637313 -0.353519924596822 0  0.7317361937470358 -0.323360700705266 0  0.7445541263883856 -0.2926416800082107 0  0.7560830989904862 -0.2614160427765341 0  0.7663031527827782 -0.2297378463274485 0  0.7751965949737367 -0.1976619314413486 0  0.7827480293803455 -0.165243827422345 0  0.7889443830817192 -0.1325396559668293 0  0.7937749290507321 -0.09960603400650653 0  0.7972313047244743 -0.06649997569407355 0  0.7993075264813849 -0.03327879370124884 0  0.8 0 0  0.7993075264813849 0.03327879370124859 0  0.7972313047244743 0.06649997569407327 0  0.7937749290507321 0.09960603400650618 0  0.7889443830817192 0.1325396559668297 0  0.7827480293803456 0.1652438274223446 0  0.7751965949737368 0.1976619314413481 0  0.7663031527827782 0.229737846327448 0  0.7560830989904862 0.2614160427765343 0  0.7445541263883856 0.2926416800082107 0  0.731736193747036 0.3233607007052654 0  0.7176514912637313 0.3535199245968219 0  0.7023244021471895 0.3830671405231632 0  0.6857814604057374 0.4119511968228447 0  0.6680513049120648 0.440122089885622 0  0.6491646298240724 0.4675310507178909 0  0.6291541314476431 0.4941306293707788 0  0.6080544516333267 0.5198747770847268 0  0.5859021178049301 0.544718926008357 0  0.5627354797238321 0.5686200663536142 0  0.5385946430984995 0.5915368208536135 0  0.5135214001541325 0.6134295163942957 0  0.4875591572826434 0.6342602526958777 0  0.4607528598982129 0.6539929679252048 0  0.4331489146285179 0.6725935011254101 0  0.40479510897633 0.6900296513548104 0  0.3757405285905647 0.7062712334326545 0  0.3460354722900009 0.7212901301952191 0  0.3157313649867812 0.7350603411717871 0  0.2848806686604375 0.7475580275962409 0  0.2535367915365622 0.7587615536763482 0  0.2217539956273525 0.7686515240492953 0  0.1895873027940951 0.7772108173586239 0  0.1570923994942115 0.7844246158944473 0  0.124325540377764 0.7902804312456289 0  0.09134345090031873 0.794768125919517 0  0.05820322912075515 0.7978799308918084 0  0.02496224685403137 0.7996104590561572 0  -0.008321949649971294 0.7999567145502458 0  -0.04159173932958415 0.7989180979421733 0  -0.07478952606399997 0.7964964072681825 0  -0.107857838382743 0.7926958349199282 0  -0.1407394289593483 0.7875229603866777 0  -0.173377373717005 0.780986738865004 0  -0.2057151703745965 0.7730984857556965 0  -0.2376968362625338 0.7638718570747205 0  -0.2692670052390448 0.7533228258121456 0  -0.300371023539144 0.7414696542799625 0  -0.3309550443903423 0.7283328624966655 0  -0.3609661212313097 0.7139351926633282 0  -0.3903522993721028 0.6983015697926738 0  -0.4190627059372809 0.6814590585592976 0  -0.4470476379362077 0.6634368164457393 0  -0.4742586483080582 0.6442660432655236 0  -0.5006486297925901 0.6239799271505472 0  -0.5261718964814662 0.6026135870963226 0  -0.55078426290896 0.5802040121645434 0  -0.5744431205451175 0.556789997448219 0  -0.597107511558955 0.5324120769102373 0  -0.6187381997239902 0.507112453211628 0  -0.6392977383433646 0.480934924650996 0  -0.6587505350769555 0.4539248093416188 0  -0.6770629135582604 0.426128866757463 0  -0.6942031716943766 0.3975952167839396 0  -0.7101416365481503 0.3683732564135389 0  -0.7248507157074848 0.3385135742305575 0  -0.7383049450528777 0.3080678628329597 0  -0.7504810328404914 0.2770888293429914 0  -0.7613579000244425 0.2456301041614629 0  -0.7709167167485051 0.2137461481236681 0  -0.7791409349440528 0.1814921582176693 0  -0.7860163169778057 0.1489239720281653 0  -0.7915309602997923 0.1160979710713705 0  -0.7956753180488498 0.08307098318824567 0  -0.7984422155799961 0.04990018416506284 0  1.110223024625157e-16 8.326672684688674e-17 0  -0.3723576493556126 -0.1463525138191145 0  -0.04568161192827726 -0.3974700839892805 0  -0.3129036606043079 0.2492436372843267 0  0.3213236355260073 -0.2382901861148431 0  0.0703849472880605 0.3938467170487376 0  0.378502707609808 0.1502840055072533 0  -0.3201112507114616 -0.416429144513729 0  -0.1856247849637049 0.4921538215455857 0  0.2206449357060424 -0.4855733742152433 0  -0.525982563587687 0.08836307034743417 0  0.3364748555652051 0.4137896393961948 0  0.5308101531600079 -0.07785669152173011 0  -0.1719919329400937 -0.5647906395288216 0  -0.5793444713010039 -0.1223038503329593 0  0.006159422111829849 0.5920813371088087 0  0.03860032099642918 -0.5892846415909383 0  -0.3990606721846117 0.438287094713306 0  -0.1936104554934062 -0.2518656753576756 0  -0.08215521500533249 0.2178947428788029 0  0.4173222665488634 -0.4215117207496621 0  0.2295238801521583 -0.02628768840527268 0  0.1566641583333668 0.1863210381381182 0  0.5819779667631357 0.1212139143858174 0  -0.2284137164693159 0.03427994331473463 0  0.09186242358474148 -0.2119179924360459 0  -0.4963105622877912 -0.3104230944447389 0  0.5105899037599276 0.3106013786566789 0  0.1929916592609046 0.5430911920798052 0  -0.5285154021238232 0.2872618668979796 0  0.5413104263815909 -0.2718907893992498 0  -0.1316581424484485 -0.09914122075408185 0  0.3737223582315546 -0.08972440350639121 0  -0.3861118161525951 0.01227788688230823 0  0.1111513422505861 -0.3699708910101482 0  -0.0842045181837251 0.3737690962766678 0  -0.3067514771416549 0.5765940260178936 0  -0.4595556125443164 -0.4643612359866968 0  -0.3213685328217361 -0.5658038897348523 0  0.2089797028283053 0.3297695448176575 0  -0.1550273013199843 0.6355325161340881 0  -0.05251381381130771 -0.2201735618695367 0  0.3435202855323954 0.5586157084805423 0  0.1808056661905916 -0.6272707062923314 0  0.3509665026680235 -0.5517340765379404 0  -0.6563106112944572 0.02732518425462023 0  0.4760864718229872 0.4508728277811411 0  0.6581066629501768 -0.01369404914758364 0  -0.630304895805185 0.186500122885971 0  -0.3296619015532358 -0.2781848650953193 0  -0.1815645685458799 -0.4262281338544875 0  0.4437502138471848 0.0289326325937394 0  -0.2714169107565991 0.382306185175379 0  0.6374999109723685 -0.1693842736618105 0  0.2461059391057702 -0.3518028280128004 0  -0.4346855043231924 0.1889912004679069 0  0.3343051142854481 0.2783391415906277 0  -0.19066052114441 0.2841289266335265 0  -0.2216308226671324 0.1610318427064877 0  -0.07644754977595868 -0.6608802769046662 0  0.440234569162095 -0.1967063987521483 0  -0.2585542534495344 -0.08937127150379125 0  -0.61674278067327 -0.2511958621935753 0  0.122753619816102 0.6559798052556564 0  0.1226675605443986 0.05588195437366737 0  0.0303128521050238 0.1496023880135861 0  0.06398435629286955 0.2694874430074703 0  -0.5290255216431327 0.4154907373193962 0  0.5423000686226391 -0.3988947265308263 0  -0.01868978266790269 0.4745090656388252 0  0.6344556945050573 0.2342505379449951 0  -0.4689365473508514 -0.07481497597508682 0  -0.4837391490367006 -0.1924894204370075 0  -0.103988407771482 0.08522743100413875 0  0.214214172817955 -0.1587934595755074 0  0.1071861155010649 -0.07929011864876033 0  0.3257171728000855 0.04368594575513576 0  0.04799192789777638 -0.4707343217926863 0  -0.06280497109276359 -0.5158797778450688 0  0.2594958751171936 0.6357929985045928 0  -0.01894614223147143 -0.1118304786415156 0  0.4346781159655563 -0.3097103607664848 0  0.270225643667
[...]
<PointData  Scalars="f_17"> 
<DataArray  type="Float64"  Name="f_17"  format="ascii">0.0000000000000000e+00  0.0000000000000000e+00  0.0000000000000000e+00  0.0000000000000000e+00  0.0000000000000000e+00  0.0000000000000000e+00  0.0000000000000000e+00  0.0000000000000000e+00  0.0000000000000000e+00  0.0000000000000000e+00  0.0000000000000000e+00  0.0000000000000000e+00  0.0000000000000000e+00  0.0000000000000000e+00  0.0000000000000000e+00  0.0000000000000000e+00  0.0000000000000000e+00  0.0000000000000000e+00  0.0000000000000000e+00  0.0000000000000000e+00  0.0000000000000000e+00  0.0000000000000000e+00  0.0000000000000000e+00  0.0000000000000000e+00  0.0000000000000000e+00  0.0000000000000000e+00  0.0000000000000000e+00  0.0000000000000000e+00  0.0000000000000000e+00  0.0000000000000000e+00  0.0000000000000000e+00  0.0000000000000000e+00  0.0000000000000000e+00  0.0000000000000000e+00  0.0000000000000000e+00  0.0000000000000000e+00  0.0000000000000000e+00  0.0000000000000000e+00  0.0000000000000000e+00  0.0000000000000000e+00  0.0000000000000000e+00  0.0000000000000000e+00  0.0000000000000000e+00  0.0000000000000000e+00  0.0000000000000000e+00  0.0000000000000000e+00  0.0000000000000000e+00  0.0000000000000000e+00  0.0000000000000000e+00  0.0000000000000000e+00  0.0000000000000000e+00  0.0000000000000000e+00  0.0000000000000000e+00  0.0000000000000000e+00  0.0000000000000000e+00  0.0000000000000000e+00  0.0000000000000000e+00  0.0000000000000000e+00  0.0000000000000000e+00  0.0000000000000000e+00  0.0000000000000000e+00  0.0000000000000000e+00  0.0000000000000000e+00  0.0000000000000000e+00  0.0000000000000000e+00  0.0000000000000000e+00  0.0000000000000000e+00  0.0000000000000000e+00  0.0000000000000000e+00  0.0000000000000000e+00  0.0000000000000000e+00  0.0000000000000000e+00  0.0000000000000000e+00  0.0000000000000000e+00  0.0000000000000000e+00  0.0000000000000000e+00  0.0000000000000000e+00  0.0000000000000000e+00  0.0000000000000000e+00  0.0000000000000000e+00  0.0000000000000000e+00  0.0000000000000000e+00  0.0000000000000000e+00  0.0000000000000000e+00  0.0000000000000000e+00  0.0000000000000000e+00  0.0000000000000000e+00  0.0000000000000000e+00  0.0000000000000000e+00  0.0000000000000000e+00  0.0000000000000000e+00  0.0000000000000000e+00  0.0000000000000000e+00  0.0000000000000000e+00  0.0000000000000000e+00  0.0000000000000000e+00  0.0000000000000000e+00  0.0000000000000000e+00  0.0000000000000000e+00  0.0000000000000000e+00  0.0000000000000000e+00  0.0000000000000000e+00  0.0000000000000000e+00  0.0000000000000000e+00  0.0000000000000000e+00  0.0000000000000000e+00  0.0000000000000000e+00  0.0000000000000000e+00  0.0000000000000000e+00  0.0000000000000000e+00  0.0000000000000000e+00  0.0000000000000000e+00  0.0000000000000000e+00  0.0000000000000000e+00  0.0000000000000000e+00  0.0000000000000000e+00  0.0000000000000000e+00  0.0000000000000000e+00  0.0000000000000000e+00  0.0000000000000000e+00  0.0000000000000000e+00  0.0000000000000000e+00  0.0000000000000000e+00  0.0000000000000000e+00  0.0000000000000000e+00  0.0000000000000000e+00  0.0000000000000000e+00  0.0000000000000000e+00  0.0000000000000000e+00  0.0000000000000000e+00  0.0000000000000000e+00  0.0000000000000000e+00  0.0000000000000000e+00  0.0000000000000000e+00  0.0000000000000000e+00  0.0000000000000000e+00  0.0000000000000000e+00  0.0000000000000000e+00  0.0000000000000000e+00  0.0000000000000000e+00  0.0000000000000000e+00  0.0000000000000000e+00  0.0000000000000000e+00  0.0000000000000000e+00  0.0000000000000000e+00  0.0000000000000000e+00  0.0000000000000000e+00  0.0000000000000000e+00  0.0000000000000000e+00  0.0000000000000000e+00  0.0000000000000000e+00  -3.0643605189524550e-02  -1.2462900254013436e-02  -9.5637916685456272e-03  -2.5469947543338395e-02  -1.1210142507975501e-02  -4.9430596825239835e-02  -1.9388946007326085e-02  -6.4183226284650332e-03  -2.6241671833755021e-02  -5.8998195219841397e-03  -1.0438416539423586e-02  -1.9214037124565393e-02  -8.4061545414627677e-03  -4.3620529826667778e-03  -6.1645926804016040e-03  -2.1307439393436128e-02  -4.2882486329399727e-03  -1.3620757683194372e-02  -1.3376056215590819e-02  -5.2623228304848141e-02  -4.7613713478376306e-03  -2.2298913837096399e-02  -4.1133314357368819e-02  -7.9577069666713646e-03  -2.5467008818873066e-02  -1.6434456908930941e-02  -5.3989946462273302e-03  -1.0289929918022534e-02  -2.0630791302523991e-02  -9.6535600119608076e-03  -5.0111333501348127e-03  -2.1586275194655637e-02  -1.4010095407491343e-02  -1.6190675328927061e-02  -1.0145622038302831e-02  -5.0634915553100436e-02  -1.1404049315543867e-02  -3.2371826038495224e-03  -3.0829594378571799e-03  -3.6345628775657106e-02  -1.3244773189911380e-02  -1.6368919498162941e-02  -1.0640998367525445e-02  -2.9241094455773292e-03  -3.0434741736549121e-03  -4.7433356277808234e-03  -8.5049928082826572e-03  -4.5039946211773794e-03  -5.6480280141980562e-03  -9.8686820389382642e-03  -7.8443468631328606e-03  -1.3710675018763878e-02  -2.6590984463742102e-02  -3.8667723792527768e-03  -9.2400294864093957e-03  -1.5937269043553390e-02  -2.3334100629693273e-02  -3.9913924633697299e-02  -3.2642735753186755e-02  -2.6184547608648022e-03  -9.1386211275848121e-03  -1.8286027818523849e-02  -3.4451825230972723e-03  -1.2174959321548240e-02  -3.2775978366700001e-02  -4.7784816622092281e-02  -5.8147284592692451e-02  -6.8449634433386504e-03  -2.9139740588317630e-03  -3.8730728941008360e-02  -5.0939175846466600e-03  -1.0737952640171888e-02  -7.9689349123003347e-03  -3.6477073759304937e-02  -1.6673138859145963e-02  -2.3293281334636862e-02  -2.0281320783000514e-02  -7.3398853429670272e-03  -6.0685939232352050e-03  -9.2166479598598961e-03  -2.2310463318672383e-02  -6.7904466504287138e-03  -2.8755417848338020e-02  -2.5277850037769981e-03  -3.1492924666204139e-02  -1.3060827140601704e-02  -2.1868546630401713e-02  -1.0200352539002540e-02  -3.2138057479639175e-03  -7.2553683028987433e-03  -1.6536978893160102e-02  -2.2548683796024295e-03  -2.7307846556625600e-02  -8.2050301895149839e-03  -3.7281682765409729e-03  -2.0349023689788075e-03  -2.0709521005002666e-03  -2.4940559135521963e-02  -5.3294936719049625e-03  -1.3095601345475686e-02  -1.5996996031685373e-02  -1.1178594081342717e-02  -9.5269157861337956e-03  -5.5571495740502448e-03  -5.8774461870846747e-03  -9.0048621846291355e-03  -1.3062058493022707e-02  -5.2780577834660915e-03  -2.8061061286364188e-02  -4.4329150404169692e-03  -1.5758253425394209e-02  -1.0048572478214453e-02  -1.3830228811442842e-02  -5.2834640275969420e-03  -1.9547501021035810e-02  -2.5380662540692212e-03  -1.0281703647464042e-02  -6.7765504118355128e-03  -8.1673199410395025e-03  -3.7936432110977150e-02  -2.0215062515453993e-03  -2.7380104180405044e-02  -1.5348031208040918e-02  -6.0450069463642453e-02  -2.0679350529735326e-03  -7.8858530513255913e-03  -2.5391744271199552e-03  -6.3318470662029943e-03  -5.6168788231080726e-03  -9.3947027661089762e-03  -3.3350097970735950e-03  -1.1690785429993789e-02  -4.0982391235266907e-03  -1.4521371927963531e-02  -1.2047394501670408e-02  -1.6976504209476499e-02  -6.6837552944806226e-03  -2.5879733109848671e-03  -7.5443717143062394e-03  -3.6883056100913525e-02  -1.2545774065216080e-02  -7.4676802821358589e-03  -2.5735657851280748e-03  -1.8139547306574424e-02  -2.0942147846780318e-03  -2.6275085063298478e-02  -3.9260738543910018e-02  -2.2279407714656058e-02  -3.8583953260880660e-03  -1.6004072874533926e-02  -1.6338085136660772e-03  -1.6289095849224198e-02  -2.8605341878789651e-03  -1.1306708402413067e-02  -2.1156508507852407e-02  -1.3024823375750609e-02  -9.7704962220799638e-03  -1.2278985054910664e-02  -3.1528153922717912e-02  -1.0487826852044203e-02  -1.8250469754608999e-02  -5.3951685416674831e-03  -4.6213099313355578e-02  -2.0713541300529523e-02  -5.2366906512824073e-02  -5.8213617710205307e-02  -3.0376373213214292e-02  -1.4773459512908891e-03  -6.2655108685168454e-03  -5.6088039506683425e-03  -1.6059655894944654e-03  -1.6222157411359177e-02  -2.6243370476393971e-02  -6.9837685862752987e-03  -3.9071690858192482e-02  -3.1132534592367483e-03  -1.8087862417223886e-03  -1.2809070654536138e-02  -2.4569607165033803e-02  -1.5021150462468939e-03  -5.8145078130052994e-03  -4.0874743860397751e-02  -3.2162907740998163e-02  -2.8984681561791603e-03  -1.3916440333075560e-03  -2.3889930633368612e-03  -1.5483382096748359e-03  -6.9563743062347975e-03  -4.7670762232389106e-02  -3.5731888260585563e-03  -2.0400898999221782e-02  -4.0909466988109629e-03  -4.0979678646858612e-03  -2.2762947117582360e-03  -6.3459030575279884e-03  -3.8948969161704148e-03  -1.5658038777307443e-02  -2.6404974821205025e-02  -3.5368657948875630e-03  -1.3890904844084334e-02  -3.9392727639910507e-03  -2.2735203569330040e-02  -5.0168942409896923e-02  -5.6369492893045053e-03  -2.9689536731190274e-03  -1.9515485710804525e-02  -4.2421612910856291e-03  -5.4819509383450303e-03  -3.5514097952286286e-02  -2.8591342754056597e-02  -1.6165461584832706e-02  -1.0643743724153365e-02  -7.9807491968013813e-03  -1.1548663468132424e-02  -1.8189349660623296e-02  -2.1240542237446675e-02  -2.6252633306695573e-02  -7.3981885131172622e-03  -7.7810445563218263e-03  -1.1444151115417460e-02  -1.6530547036953648e-02  -9.1290757038497653e-03  -1.3608585707945991e-02  -1.3791083097898530e-03  -6.1898448871872949e-03  -1.8831914351825269e-03  -1.9980853828227108e-02  -4.5831314979312057e-03  -5.0879400334183249e-02  -4.4883852043239381e-03  -4.7691172455771964e-03  -1.9299800917503399e-02  -3.0112474215016467e-02  -2.8518420965740379e-02  -4.8766162433017870e-03  -7.6566178723379459e-03  -6.9842218898159246e-03  -9.0465066492074839e-03  -1.1906460778624181e-02  -1.6118844989633507e-02  -1.6504012602702345e-02  -1.3343976883524249e-02  -1.6764204059736051e-03  -1.7426384157389282e-03  -1.0719133907698745e-02  -1.0289637160035760e-02  -1.3884694933991361e-02  -2.1173046312759281e-02  -2.6668905194178340e-02  -1.2788025220647866e-02  -1.2955388615597958e-02  -3.2119951441623974e-02  -2.0752911886849638e-02  -3.5344643196405425e-03  -4.4459172178693947e-02  -5.8853841536086401e-03  -3.5031663294541188e-02  -4.3050304512665567e-02  -4.5895324845645616e-03  -2.5284609916707132e-03  -4.4214918292220396e-03  -1.2681386473897527e-03  -6.3020686909810242e-03  -1.8993625254586293e-02  -4.0518662632803770e-03  -5.8409201358185295e-03  -2.5617744636551407e-02  -2.9450697586181473e-03  -1.4334535358413050e-03  -3.5970642542176513e-03  -4.1363281891920241e-02  -6.7795941055150844e-03  -1.1661798286287113e-02  -5.0542694221021034e-02  -6.0046557780877995e-02  -2.8507789592308371e-03  -6.2885979571107404e-03  -8.4256647854185629e-03  -1.0392854259992885e-02  -1.9943058804156970e-02  -1.7681326464230582e-02  -5.0724254909173183e-03  -1.0599184041873249e-02  -7.4269903527903296e-03  -1.5827788523568601e-02  -4.7318825938659900e-03  -3.1861092824472408e-02  -1.5181261607785804e-02  -3.1680094830046808e-03  -4.2123700834670449e-03  -1.2774642783494490e-03  -3.2797421278359461e-02  -1.3699395598128611e-02  -1.9919477579968252e-02  -8.4406630450295297e-03  -1.3809211039934354e-03  -1.4361905236403624e-03  -7.1965199521319490e-03  -6.9591199340066955e-03  -3.8016824195312021e-02  -5.5617526396102481e-03  -7.3900304045440559e-03  -1.4748659817423522e-02  -2.4509525654975587e-03  -5.8280050510337439e-03  -2.0302390053794857e-02  -7.5569799652186881e-03  -7.5797541702656941e-03  -1.5700190326367578e-02  -7.2934258162662283e-03  -2.0038710010220961e-02  -1.0295760813117241e-02  -8.3545606058420940e-03  -2.3408044089556911e-03  -1.9060920503115471e-02  -3.0219418172289920e-02  -6.6597993904596786e-03  -1.8415427423305632e-03  -1.8331097993303194e-02  -4.2166454588644410e-03  -1.8283587449440176e-02  -1.2843364230018862e-03  -1.3043148457186583e-03  -3.4508727383227966e-02  -3.9268267318143792e-02  -1.7255873877161522e-03  -6.0049672250887974e-03  -6.3625625959600448e-03  -4.4883920099071418e-03  -5.7856215366292362e-03  -8.0210622815666786e-03  -2.1804876650122006e-02  -1.9728866670224013e-02  -5.6495110733834012e-03  -8.5440559597153871e-03  -2.7318488222726305e-02  -4.5627370720863585e-02  -1.7169491802906153e-02  -1.1750631142002600e-03  -1.1198027679556284e-02  -1.0837318255999284e-03  -1.0712568369009598e-03  -5.8177770496666718e-02  -1.2904766773783346e-02  -1.6340923939763962e-03  -4.3352528236061151e-03  -2.6440471590289973e-02  -1.9920737737099039e-02  -1.8432766141898535e-03  -3.1980389407822358e-03  -2.3694654647880467e-02  -2.5632123816393008e-02  -1.1245909401223522e-02  -2.0033133653405717e-03  -4.1710385296737373e-03  -5.0521044793404102e-03  -1.0788117225767335e-03  -1.6008565957865078e-02  -1.7057007165565883e-02  -9.2837198078608053e-03  -2.8175436376918266e-02  -4.7728515401869826e-03  -1.5920626014219834e-02  -1.6316298333541742e-03  -1.4452059452501944e-02  -1.1364530730649487e-02  -1.0107267242818036e-02  -3.4189541664509729e-03  -3.5367593225471283e-02  -2.4167219110595509e-03  -2.2091337336117593e-03  -6.6500925760681340e-03  -3.0052168942652051e-02  -2.2590659199315286e-02  -2.4238476425077062e-02  -1.1668986165515706e-02  -2.5819742393140829e-02  -9.7742630084137307e-04  -6.2093399593897512e-03  -6.2085278415030511e-02  -2.7798800804869467e-03  -1.0370628681854423e-02  -2.0833587724340269e-03  -3.1073375027695855e-03  -2.4331914221278443e-03  -1.6071049638050391e-02  -5.4930151444768848e-03  -1.0249226400864896e-03  -5.7474387821201409e-03  -4.0163401776020704e-03  -2.4425125352704719e-02  -2.6938330089042728e-03  -1.7970561131368586e-02  -2.5712979137833087e-03  -1.8675689994448720e-02  -2.8939066583687997e-02  -1.1099660847632756e-02  -9.9625969683189829e-03  -1.1422344800127468e-03  -2.2608907077804330e-02  -5.8266620199005380e-02  -1.2172051620262315e-02  -1.4075739616340418e-02  -1.8353537247921617e-02  -1.4104562683450051e-02  -4.4355568046080221e-02  -3.1490546647914854e-03  -6.8276229586595972e-03  -8.1744332431208412e-03  -3.2954516222537922e-02  -1.2578228234568299e-02  -5.7945252272811037e-03  -1.0611976257635916e-02  -7.1766133937860273e-03  -1.4704115661799074e-02  -7.8500301346625008e-03  -9.2387119599096346e-03  -4.0645080205563818e-03  -1.5577253877455558e-03  -1.0277983107477818e-03  -2.6934355750912629e-03  -1.2491789241564927e-02  -1.0388085179561793e-02  -4.2772270517453925e-03  -3.8354484889012358e-02  -6.1438663153918632e-03  -6.1700917267759762e-03  -5.0498550998024890e-03  -8.7092241903430415e-03  -1.2717776200050096e-02  -1.1051253260161448e-02  -9.2611679223251336e-03  -3.9688898319551417e-03  -2.3885670897759705e-02  -1.2977938304702347e-03  -1.0291520925668436e-02  -3.0424965006642058e-03  -8.2327541490799239e-03  -3.7780447776214685e-03  -3.2303078043410620e-03  -1.2564142091378011e-02  -1.6002402463559367e-02  -8.9191094886035167e-03  -7.4804542593358237e-03  -6.8782452779496675e-03  -2.7110928492810166e-03  -8.4220927533266415e-03  -2.4932046919112364e-03  -2.4836941358590036e-03  -1.1702153286152720e-03  -5.9828045679623009e-03  -1.2905183391910042e-02  -3.7301734370568818e-03  -8.0963123192369698e-03  -8.2040852805117300e-03  -4.0012021609919270e-03  -1.4528708329373800e-02  -6.5277497172014668e-03  -1.5092302434636835e-02  -2.3763676599883730e-02  -1.0331117634076171e-02  -4.2522802743084585e-02  -3.2186116486611024e-03  -4.4297497901856896e-03  -4.0370270581541069e-03  -9.9808658421173223e-03  -1.1538309224397764e-02  -1.0005827919271348e-02  -5.3914762658036477e-02  -1.2087417432576960e-03  -2.2922237031949320e-02  -3.7309020882822994e-02  -7.8806867507145925e-03  -3.7355059339401496e-02  -8.3339061461636544e-03  -3.0553339238939801e-02  -4.8449683954967871e-03  -1.6684092508925117e-03  -7.7193816362964643e-03  -9.3842084690128509e-03  -9.2940762460665528e-04  -4.1707667786011499e-03  -4.0962142587764039e-03  -1.1781676170711021e-02  -4.1187407132074583e-02  -1.3019514955758442e-02  -2.1113747957733188e-03  -2.4725400093711113e-02  -3.1602547477419342e-02  -2.2174624406604653e-02  -5.5499869652477246e-02  -8.2294236808066537e-03  -2.9997679638259548e-03  -1.1633897085051491e-02  -3.4908406891653128e-03  -5.5318349855643196e-03  -2.9631683659705559e-03  -9.4494733214506143e-03  -1.0530705359693103e-03  -1.4546053506247535e-02  -4.2564667131458546e-02  -4.2232780107674839e-02  -2.6952570417247881e-02  -8.7917057105287039e-03  -5.7693412846689185e-03  -1.5497433993234416e-02  -1.2796529427045615e-02  -2.5918596564262360e-03  -4.3269892892552446e-03  -3.1830555399531217e-02  -1.7997159429939243e-02  -1.3399684749032617e-02  -1.1641507478898199e-02  -1.2307121833525886e-02  -4.2112985126777202e-03  -8.4832489596835259e-04  -2.0985978950518042e-02  -1.4806828742371545e-02  -4.6321453570141204e-03  -1.6641043792015791e-02  -2.4457637160279952e-03  -7.6527948559174924e-03  -1.2648045182725417e-03  -2.9886682103862075e-03  -4.2510572822743609e-03  -1.9879926600970010e-03  -5.7243136940505106e-03  -4.1509816560065553e-03  -3.4156811431421095e-03  -5.5799309733167851e-02  -1.1005155659664957e-03  -3.6101275217612578e-03  -3.5773127177042147e-02  -7.9592867651161734e-04  -6.8382502840809711e-03  -4.3825146479995244e-03  -4.0502538199998626e-02  -1.2589994998978376e-02  -1.5912669488030000e-03  -6.1431450355195795e-03  -3.5055875667703695e-03  -2.3366336456160648e-03  -1.0466053083100059e-03  -2.7420151464391553e-02  -8.9235635963603351e-03  -1.5552362522434637e-02  -2.6079502972861858e-02  -1.3377291508757523e-02  -1.5239404484906552e-02  -3.6283512336117590e-03  -1.5432040564489949e-02  -4.5097045890728639e-02  -4.9883241764833632e-03  -7.8347077012009825e-03  -4.9961901386708571e-03  -3.7600635825288183e-03  -4.0875961745991448e-03  -6.1161981930971448e-03  -3.8162696992029821e-03  -1.3524789563669815e-02  -9.1594789244080765e-03  -1.0032819873424676e-02  -1.0827854892606081e-02  -7.9617657505634942e-03  -2.1148782077033187e-02  -1.5328237292499259e-02  -8.0509131692640019e-03  -2.3592743884779905e-02  -1.4052143774720718e-02  -1.7139205160186934e-02  -1.3479711563989092e-02  -1.0079660877001325e-02  -1.0617502002775541e-02  -1.6458850943424981e-02  -1.7573364789122949e-02  -1.4215114918307398e-02  -1.7127626130151490e-02  -1.2425716104697049e-02  -3.3750069973875903e-03  -1.3996806766363112e-02  -7.8892888006618501e-04  -5.2131889423107647e-03  -3.4928725485579436e-03  -3.0611723067598289e-03  -8.6225897921075097e-03  -1.3244831391279714e-02  -3.2401357559188218e-03  -1.2174952004391014e-03  -1.4412999735996799e-03  -1.7446744081869543e-02  -1.3193104871409142e-02  -1.5115335434420672e-03  -2.9333801369131243e-02  -2.6099311580445088e-02  -3.1056409524830304e-02  -2.5450779084667161e-03  -1.8229109608047529e-02  -2.0080029551667544e-02  -6.9989944905046921e-03  -8.6802762219580112e-04  -8.0319530275694412e-04  -2.3563189760524333e-02  -1.2358879507380639e-02  -3.5667423622108244e-02  -1.7063148838839755e-02  -1.3792536482649045e-02  -1.1300754627480935e-02  -1.1443666401176947e-02  -3.0840040567289640e-03  -5.8411276845865175e-03  -4.9660151518852065e-03  -2.0916652950199330e-02  -3.2869281641047479e-02  -3.9003876668940464e-03  -7.0560401454813392e-03  -1.0489726848789989e-02  -5.0466101057494014e-03  -1.0811670815677783e-02  -1.5539021371268983e-02  -1.9023756548299256e-02  -2.2190027021314052e-02  -4.0033974348655825e-03  -4.7767002532828048e-02  -1.8569618847608946e-03  -6.8107097406023493e-03  -3.2605473321866379e-03  -4.6524490626240391e-03  -6.7423687385770748e-03  -3.2426900865026101e-02  -4.6340393430732624e-02  -3.0160881334706643e-03  -2.2210256438733290e-03  -3.5993866751050114e-03  -4.2168092970571842e-02  -4.3602769816026066e-02  -5.2099986337372013e-02  -2.2597090919828349e-02  -2.2709724836949108e-02  -3.4140998922510524e-03  -2.5450845814787935e-02  -2.9021438194965859e-03  -2.0814184528054639e-03  -8.9111978449373343e-04  -8.0751293018137098e-04  -1.5931575040657911e-02  -9.3541747361265519e-03  -9.9725418581517143e-03  -1.0008928455747173e-02  -4.3688414298900637e-03  -3.4126307951184431e-02  -8.7861514912008012e-03  -6.3130357810226